75
Cc1ccccc1P(c1ccccc1C)8->N1[C@H]2CC[C@H](C2)[C@@H]1C1=N9->C(c2ccccc2)(c2ccccc2)CO1.[Ir+]89  energy: -107.057156471057 gnorm: 0.001456042607 xtb: 6.3.3 (5b13467)
C        -0.89509655558004   -3.39022756841275    0.48093657674379
C        -2.30985025237564   -2.92591105146766    0.64778200761944
C        -3.29327871656203   -3.88023440861860    0.86414278602797
C        -4.60697097957812   -3.50606032255774    1.09369969361985
C        -4.95480592672335   -2.16456018344613    1.10958867104113
C        -3.98379152439379   -1.20569788473381    0.88484611589274
C        -2.65962632594391   -1.56992366442782    0.65280404718065
P        -1.34502796941780   -0.34814215310072    0.29432126148401
C        -1.94922237511082    0.63739364862669   -1.13046219386106
C        -1.90991825609873    2.03024203523083   -1.09116037860363
C        -2.29593277988216    2.79554539584851   -2.17666985750437
C        -2.71993375444787    2.17322092933114   -3.33843054890505
C        -2.72358963863197    0.79028831637705   -3.40966287887421
C        -2.33164589926440    0.01959362677846   -2.32680116640082
C        -2.27799335034260   -1.47259604817424   -2.46575183884899
N        -1.22432636704881    0.76816435582918    1.52191519059396
C        -2.20594087042440    1.66388020576117    2.12503284302727
C        -2.57239995910221    1.08672664195599    3.49300929527895
C        -1.30938743793140    1.38238142011456    4.33471147015841
C        -0.36072866762883    2.00443977196447    3.30493203414773
C        -1.32901547117079    2.85480334216726    2.48255159605212
C         0.00423079898888    0.89707102879674    2.32507474496407
C         1.18659697804511    1.15398247074068    1.46444179103501
N         1.50149595660074    0.30343179949215    0.48776366344593
C         2.78286195558920    0.71055550434635   -0.09276951178074
C         2.66813325548764    0.94449409907236   -1.58379432877356
C         1.78599493026363    0.19765533549909   -2.35103461432932
C         1.69834914495867    0.36199888299967   -3.71904371796805
C         2.52262458001317    1.28043805565172   -4.35030509195975
C         3.42979946867423    2.01457971361359   -3.60426600293940
C         3.50535845757535    1.84312228821995   -2.23163581244491
C         3.76739903648020   -0.42236582869221    0.09508987635993
C         3.34315649359819   -1.73960889056656    0.14585895702051
C         4.22339046714618   -2.79024838466281    0.27755700210774
C         5.58318227968799   -2.52624052940442    0.35233921912964
C         6.03539032413850   -1.21966017999649    0.28639207728562
C         5.13340117031404   -0.17800544402314    0.15143128876500
C         3.06570863961888    1.97864769926197    0.72805561117308
O         1.99227391895145    2.10472899872450    1.66331302378713
Ir        0.58349696866598   -1.42232702770357    0.06018791128606
H        -0.38524381574037   -3.36228950229070    1.45008544370185
H        -0.86393348639402   -4.41363277796946    0.11100352487659
H        -0.32447059619587   -2.79013650813266   -0.32527891493402
H        -3.02450771711346   -4.93186787255101    0.85625228411346
H        -5.36304341942904   -4.26529587351442    1.26113410456119
H        -5.98272956308523   -1.86902065970939    1.28870093570480
H        -4.24907613069072   -0.15361401309731    0.88410560689256
H        -1.55770330892510    2.52544389831439   -0.19527975524727
H        -2.26061910748088    3.87736906018967   -2.11793506886894
H        -3.02974709464307    2.76387438901090   -4.19353128776470
H        -3.02576674969267    0.29626540017621   -4.32740584930835
H        -1.30969950597646   -1.83353482522595   -2.09978498776758
H        -2.39658570563174   -1.76344677601278   -3.50961119228948
H        -3.06408855291913   -1.94468001730187   -1.87470363305424
H        -3.04374438613660    1.83233671098173    1.46456117604456
H        -3.44609515392332    1.58620158775803    3.90669167756786
H        -2.77053867773508    0.01888677914641    3.42502473366070
H        -0.88998165954784    0.47747635141109    4.77159330901547
H        -1.53348280814202    2.09191634956249    5.13049293377916
H         0.49925347513475    2.51289545282081    3.72517400933071
H        -1.84290949390572    3.60272142554717    3.08089788226590
H        -0.86133525424980    3.31368230323363    1.61461336477160
H         0.19946541469233   -0.04185357196784    2.85307690262075
H         1.13821830654028   -0.55172376179125   -1.84571778967045
H         0.99832740618497   -0.22954422423104   -4.29724030370371
H         2.46445299968207    1.41468003951452   -5.42459079654892
H         4.08765827613874    2.72345908256910   -4.09543510901375
H         4.22880132698454    2.41354266896536   -1.66023025904986
H         2.23326837997281   -2.00237866048646    0.08143251805585
H         3.86466561605148   -3.81140840689319    0.32062631329685
H         6.28635132590758   -3.34445810161948    0.45884278223318
H         7.09810213691208   -1.00929648876541    0.33841684375928
H         5.49317741361700    0.84340855761909    0.09032203306042
H         3.08091162770426    2.87613577112026    0.10832550721467
H         3.99828473488420    1.91230921720014    1.28938124866795
