34
C/C(=C\c1ccccc1)C(=O)Cc1ccccc1 react  energy: -47.940955277284 gnorm: 0.001672850181 xtb: 6.3.3 (5b13467)
C         1.07237334282721   -2.76025809609835   -0.00888364153722
C         0.32100585240816   -1.55109964671536    0.48084098667100
C         0.78226464650737   -0.29938335687341    0.41815913777238
C         2.06390315781022    0.15018185733335   -0.12338809735983
C         3.25268871317038   -0.54902166265962    0.06717406548558
C         4.43445947647160   -0.08312087999185   -0.48332618850713
C         4.44403940430878    1.07645269947909   -1.24055663889134
C         3.26648365078832    1.78617682621219   -1.42829433043743
C         2.09067164115018    1.33463902543634   -0.86235251242188
C        -1.05578198197284   -1.85717391602498    0.90784352407398
O        -1.62322492350879   -2.85091819689324    0.53972024245251
C        -1.77326720492975   -0.83871764312967    1.78160938599847
C        -2.49551664411702    0.14010169726567    0.89357714970760
C        -3.40128617718293   -0.32971727210315   -0.04912928548503
C        -4.06872762205404    0.55255216160948   -0.87980132014683
C        -3.83382576772343    1.91571305457904   -0.77606696984788
C        -2.92720907761573    2.38884375885878    0.15776694518383
C        -2.25967723910229    1.50280166369279    0.98830493201371
H         1.76100522401572   -2.50429722558922   -0.81358136154222
H         0.34648685205852   -3.49700450713295   -0.36488280814666
H         1.64118836551049   -3.20743978283207    0.80869208956782
H         0.12253377492480    0.51275443189903    0.71058261299833
H         3.25843332851732   -1.44431070070408    0.67659505064576
H         5.35651250737849   -0.63027170884251   -0.31940071650500
H         5.36851817645015    1.43458296435013   -1.67851470511132
H         3.27025690701453    2.69742680514811   -2.01641240520093
H         1.16702551402044    1.88620478270200   -1.00220233529350
H        -2.50576094820547   -1.38055240199354    2.38267313602841
H        -1.07814201094123   -0.31011261807586    2.43215505571366
H        -3.57207036241538   -1.39958360881968   -0.12704450326207
H        -4.77595746300309    0.17919633924238   -1.61215458846242
H        -4.35851965561356    2.60806387583813   -1.42404564165640
H        -2.73946964645465    3.45365768810557    0.24298011809054
H        -1.55141281049359    1.87363259272787    1.72136661741135
