26
CC(=O)NC1=C(C)CCCC1 react  energy: -33.582753059268 gnorm: 0.002802949516 xtb: 6.3.3 (5b13467)
C         3.77539620435723   -0.55423982184639   -0.34346940047073
C         2.33984282265242   -1.00960290679920   -0.24406249335972
O         2.04064024237877   -2.18063474763024   -0.21309524474077
N         1.47417973481102    0.02330163875840   -0.18347369366140
C         0.08684878119048   -0.04388464128681   -0.05863914430557
C        -0.65189042473050    1.04941608211661    0.10434783825623
C        -0.09755479550190    2.45196419883777    0.13540823916371
C        -2.15183212384304    0.99083862191676    0.27670296919328
C        -2.62405040034571   -0.40410503982330    0.66141263811986
C        -2.00498695655175   -1.40507506360638   -0.30202071017092
C        -0.49451637429413   -1.43042436870872   -0.10987350243780
H         3.86202759985786    0.31808117390963   -0.98666783457795
H         4.38328277898776   -1.36691017923525   -0.73417929445716
H         4.13485778071107   -0.29044857563276    0.65010251143640
H         1.84979020812664    0.95778165802775   -0.19824414095713
H        -0.68623644228080    3.09178444012225   -0.52512330435818
H        -0.15832555543420    2.85730925084561    1.14836731147251
H         0.94327386416520    2.47902184906340   -0.18822222814909
H        -2.63194775324422    1.28523889141896   -0.66223663566744
H        -2.44694167202423    1.71226547810838    1.04211032019568
H        -3.71194989197728   -0.45368450735189    0.61664306714623
H        -2.30008005884798   -0.63675002631271    1.67779487171515
H        -2.40893178224972   -2.40295825559726   -0.13297874444875
H        -2.23533006412363   -1.10017830637080   -1.32453880853306
H        -0.03492020208646   -1.98799150976776   -0.92702366332069
H        -0.25064751970289   -1.95011533315606    0.82096307691733
